 Gaussian 16, Revision C.01,
 Gaussian 16:  ES64L-G16RevC.01  3-Jul-2019

 ----------------------------------------------------------------------
 #P M062X/6-311++G(d,p) Opt(Tight,RCFC) Freq SCRF(SMD) SCF(Conver=9) In
 t(Grid=UltraFine) Geom(Check) Guess(Read)
 ----------------------------------------------------------------------

 -----------
 vx_sp reopt
 -----------
 Structure from the checkpoint file:  "vx_sp.chk"
 Charge =  0 Multiplicity = 1

 SCF Done:  E(RM062X) =  -1379.51295761     A.U. after    1 cycles
 Optimization completed.
    -- Stationary point found.
 Normal termination of Gaussian 16 at Wed Mar 18 15:11:19 2020.

 ----------------------------------------------------------------------
 #P Geom=AllCheck Guess=TCheck SCRF=Check GenChk RM062X/6-311++G(d,p) F
 req
 ----------------------------------------------------------------------

 Structure from the checkpoint file:  "vx_sp.chk"
 -----------
 vx_sp reopt
 -----------
 Charge =  0 Multiplicity = 1

                         Standard orientation:
 ---------------------------------------------------------------------
 Center     Atomic      Atomic             Coordinates (Angstroms)
 Number     Number       Type             X           Y           Z
 ---------------------------------------------------------------------
      1         15           0       -2.333211   -0.354014    0.285124
      2         16           0       -1.182568   -1.666275   -0.893155
      3          8           0       -2.639971    0.884925   -0.688464
      4          6           0        0.165489   -2.160287    0.255418
      5          6           0       -1.568890    1.810464   -1.023240
      6          8           0       -1.641007    0.012834    1.561391
      7          6           0       -3.961989   -1.063404    0.478171
      8          1           0       -3.875516   -1.963111    1.088668
      9          1           0       -4.378505   -1.316814   -0.497334
     10          1           0       -4.599276   -0.332454    0.979722
     11          1           0       -1.635277    1.965133   -2.099901
     12          1           0       -0.608244    1.340766   -0.797795
     13          6           0       -1.754803    3.099247   -0.257704
     14          1           0       -0.952076    3.793942   -0.515856
     15          1           0       -1.724388    2.916627    0.818590
     16          1           0       -2.710191    3.562614   -0.511044
     17          6           0        1.525150   -1.597157   -0.143969
     18          1           0       -0.131824   -1.877394    1.263582
     19          1           0        0.200865   -3.248880    0.205598
     20          1           0        2.278576   -2.163297    0.428981
     21          7           0        1.665197   -0.159562    0.031616
     22          1           0        1.692031   -1.841298   -1.195125
     23          6           0        2.661225    0.443349   -0.881003
     24          6           0        1.796912    0.243124    1.444880
     25          6           0        1.364579    1.694987    1.642065
     26          6           0        3.180370    0.014844    2.067088
     27          1           0        1.085485   -0.377463    1.996257
     28          1           0        2.959684    1.389995   -0.425476
     29          6           0        2.017235    0.763168   -2.228876
     30          6           0        3.938928   -0.381878   -1.103320
     31          1           0        0.369168    1.863531    1.228264
     32          1           0        2.060266    2.392780    1.167833
     33          1           0        1.338690    1.933254    2.708635
     34          1           0        3.517071   -1.017682    1.947798
     35          1           0        3.138003    0.231410    3.137686
     36          1           0        3.926928    0.678249    1.621187
     37          1           0        2.756990    1.181231   -2.917113
     38          1           0        1.206296    1.485237   -2.113350
     39          1           0        1.607590   -0.142688   -2.686945
     40          1           0        4.679582    0.234945   -1.618823
     41          1           0        3.744003   -1.253371   -1.734119
     42          1           0        4.379536   -0.728531   -0.168089
 ---------------------------------------------------------------------

 SCF Done:  E(RM062X) =  -1379.51295761     A.U. after    1 cycles

 The electronic state is 1-A.
 Alpha  occ. eigenvalues --  -89.89491 -78.13876 -19.65741 -19.59773 -14.72428
 Alpha  occ. eigenvalues --  -10.59211 -10.56549 -10.55535 -10.55512 -10.55464
 Alpha  occ. eigenvalues --  -10.54140 -10.52224 -10.51070 -10.51069 -10.51040
 Alpha  occ. eigenvalues --  -10.51025  -8.26144  -6.95251  -6.18259  -6.18030
 Alpha  occ. eigenvalues --   -6.17683  -5.07064  -5.06985  -5.06831  -1.18952
 Alpha  occ. eigenvalues --   -1.10191  -1.02406  -0.89637  -0.87553  -0.86898
 Alpha  occ. eigenvalues --   -0.83824  -0.82273  -0.77791  -0.76715  -0.75983
 Alpha  occ. eigenvalues --   -0.72322  -0.69312  -0.67678  -0.63604  -0.60081
 Alpha  occ. eigenvalues --   -0.56842  -0.55964  -0.55517  -0.55137  -0.53363
 Alpha  occ. eigenvalues --   -0.51800  -0.50005  -0.49547  -0.49145  -0.48771
 Alpha  occ. eigenvalues --   -0.48042  -0.47405  -0.46876  -0.46247  -0.45527
 Alpha  occ. eigenvalues --   -0.44577  -0.43845  -0.43518  -0.43292  -0.43107
 Alpha  occ. eigenvalues --   -0.42162  -0.41276  -0.40520  -0.40387  -0.39098
 Alpha  occ. eigenvalues --   -0.38900  -0.38521  -0.37245  -0.36826  -0.36533
 Alpha  occ. eigenvalues --   -0.34684  -0.30578  -0.26324
 Alpha virt. eigenvalues --    0.00050   0.00871   0.00957   0.01215   0.02190
 Alpha virt. eigenvalues --    0.02610   0.02618   0.03015   0.03156   0.03980
 Alpha virt. eigenvalues --    0.04371   0.04805   0.04899   0.05142   0.05401

 Mulliken charges:
               1
     1  P   -0.134635
     2  S    0.295215
     3  O    0.033616
     4  C   -0.428952
     5  C   -0.154662
     6  O   -0.364070
     7  C   -0.937276
     8  H    0.236043
     9  H    0.258340
    10  H    0.217483
    11  H    0.280312
    12  H   -0.072521
    13  C   -0.512916
    14  H    0.193061
    15  H    0.200045
    16  H    0.201135
    17  C   -0.362191
    18  H    0.184900
    19  H    0.322878
    20  H    0.156031
    21  N    0.321384
    22  H    0.172574
    23  C   -0.307615
    24  C   -0.309239
    25  C   -0.366515
    26  C   -0.677087
    27  H    0.166402
    28  H    0.177836
    29  C   -0.282991
    30  C   -0.638645
    31  H    0.161033
    32  H    0.152159
    33  H    0.196001
    34  H    0.190469
    35  H    0.188741
    36  H    0.177943
    37  H    0.186238
    38  H    0.230321
    39  H    0.123096
    40  H    0.210820
    41  H    0.171527
    42  H    0.143713
 Sum of Mulliken charges =  -0.00000

 Dipole moment (field-independent basis, Debye):
    X=              1.3320    Y=             -1.2325    Z=             -1.8133  Tot=              2.5654
 Quadrupole moment (field-independent basis, Debye-Ang):
   XX=           -104.5745   YY=           -107.4609   ZZ=           -123.4448
   XY=              2.3280   XZ=              0.9032   YZ=             -5.3723

  Exact polarizability:     276.727      -8.498     261.765      -1.001       2.805     255.095
 Approx polarizability:     224.731      -6.273     217.430       0.850       3.771     219.235

                      1                      2                      3
                      A                      A                      A
 Frequencies --     29.1524                38.2024                65.6074
 Red. masses --      3.6421                 3.4228                 3.8351
 Frc consts  --      0.0018                 0.0029                 0.0097
 IR Inten    --      0.9250                 2.5866                 1.7570

                      4                      5                      6
                      A                      A                      A
 Frequencies --     72.6540                77.9424               106.5613
 Red. masses --      4.2665                 4.0938                 2.8611
 Frc consts  --      0.0133                 0.0147                 0.0191
 IR Inten    --      1.5744                 2.9973                 0.9266

                      7                      8                      9
                      A                      A                      A
 Frequencies --    111.3827               121.7180               148.0215
 Red. masses --      2.8532                 2.8729                 4.2709
 Frc consts  --      0.0209                 0.0251                 0.0551
 IR Inten    --      2.0003                 1.2934                 2.7634

                     10                     11                     12
                      A                      A                      A
 Frequencies --    174.9880               192.7895               203.2013
 Red. masses --      2.2527                 2.6417                 1.6907
 Frc consts  --      0.0406                 0.0578                 0.0411
 IR Inten    --     12.1109                 5.1074                 0.7470

                     13                     14                     15
                      A                      A                      A
 Frequencies --    214.7415               222.9138               228.3701
 Red. masses --      1.0489                 1.6612                 1.3208
 Frc consts  --      0.0285                 0.0486                 0.0406
 IR Inten    --      0.0516                 1.7937                 0.2570

                     16                     17                     18
                      A                      A                      A
 Frequencies --    234.3607               248.6281               265.9126
 Red. masses --      1.3897                 2.4963                 1.4291
 Frc consts  --      0.0450                 0.0909                 0.0595
 IR Inten    --      0.8055                 2.5360                 0.5912

                     19                     20                     21
                      A                      A                      A
 Frequencies --    270.9489               289.9077               298.9082
 Red. masses --      1.8325                 3.1898                 3.0678
 Frc consts  --      0.0793                 0.1580                 0.1615
 IR Inten    --      1.0948                21.0496                14.3538

                     22                     23                     24
                      A                      A                      A
 Frequencies --    307.3233               328.2549               343.8420
 Red. masses --      1.8870                 1.1732                 2.1479
 Frc consts  --      0.1050                 0.0745                 0.1496
 IR Inten    --      2.3102                 0.0357                 0.0726

                     25                     26                     27
                      A                      A                      A
 Frequencies --    371.3988               388.5527               402.4707
 Red. masses --      5.7806                 2.2827                 2.1818
 Frc consts  --      0.4698                 0.2030                 0.2082
 IR Inten    --     29.8155                 1.3034                 5.8066

                     28                     29                     30
                      A                      A                      A
 Frequencies --    422.2628               459.2358               474.9890
 Red. masses --      4.2633                 2.9235                 3.6662
 Frc consts  --      0.4479                 0.3633                 0.4873
 IR Inten    --     33.9165                40.6048                42.9818

                     31                     32                     33
                      A                      A                      A
 Frequencies --    502.0009               520.6973               560.7502
 Red. masses --      2.8311                 7.7308                 2.3996
 Frc consts  --      0.4204                 1.2349                 0.4446
 IR Inten    --     50.8611               142.0211                 9.9272

                     34                     35                     36
                      A                      A                      A
 Frequencies --    581.5518               670.0866               710.3207
 Red. masses --      2.5963                 5.2597                 2.4852
 Frc consts  --      0.5173                 1.3915                 0.7388
 IR Inten    --     22.8376                47.5512                10.0367

                     37                     38                     39
                      A                      A                      A
 Frequencies --    740.7151               796.5828               817.1241
 Red. masses --      3.5246                 3.5864                 1.1839
 Frc consts  --      1.1394                 1.3408                 0.4657
 IR Inten    --    203.7219                92.3512                 1.6827

                     40                     41                     42
                      A                      A                      A
 Frequencies --    851.7824               873.0422               916.4767
 Red. masses --      2.2054                 2.1339                 1.3531
 Frc consts  --      0.9427                 0.9583                 0.6696
 IR Inten    --      0.1531                 3.5747               102.5898

                     43                     44                     45
                      A                      A                      A
 Frequencies --    918.9175               922.5506               925.1154
 Red. masses --      1.3028                 1.4486                 1.4620
 Frc consts  --      0.6482                 0.7264                 0.7372
 IR Inten    --      7.3028               137.1065                50.1467

                     46                     47                     48
                      A                      A                      A
 Frequencies --    927.1886               946.9378               951.8834
 Red. masses --      1.3161                 1.3992                 1.5511
 Frc consts  --      0.6666                 0.7392                 0.8280
 IR Inten    --      8.4598                 0.7999                15.4367

                     49                     50                     51
                      A                      A                      A
 Frequencies --    953.2671               960.8990              1000.1781
 Red. masses --      2.3624                 1.8831                 2.0483
 Frc consts  --      1.2648                 1.0244                 1.2072
 IR Inten    --    153.8442                11.8943                16.5855

                     52                     53                     54
                      A                      A                      A
 Frequencies --   1064.6940              1068.4094              1110.5863
 Red. masses --      3.5844                 1.8162                 2.1889
 Frc consts  --      2.3940                 1.2215                 1.5907
 IR Inten    --    321.8141                60.4439                26.4667

                     55                     56                     57
                      A                      A                      A
 Frequencies --   1119.0567              1137.7727              1148.5880
 Red. masses --      2.0803                 2.1079                 1.9882
 Frc consts  --      1.5349                 1.6077                 1.5454
 IR Inten    --     19.2646                 7.9685                42.2886

                     58                     59                     60
                      A                      A                      A
 Frequencies --   1158.4757              1182.7868              1184.7575
 Red. masses --      1.8771                 4.3388                 2.0141
 Frc consts  --      1.4843                 3.5763                 1.6656
 IR Inten    --     26.0015               255.5487                45.9229

                     61                     62                     63
                      A                      A                      A
 Frequencies --   1197.3355              1203.6072              1238.0079
 Red. masses --      2.1619                 1.8388                 2.5757
 Frc consts  --      1.8260                 1.5695                 2.3259
 IR Inten    --    176.6064               103.8667                82.5674

                     64                     65                     66
                      A                      A                      A
 Frequencies --   1264.3102              1296.9996              1335.6293
 Red. masses --      1.5279                 1.3417                 1.1070
 Frc consts  --      1.4390                 1.3298                 1.1635
 IR Inten    --     37.8280                11.2160                16.4083

                     67                     68                     69
                      A                      A                      A
 Frequencies --   1337.6744              1338.6482              1341.2482
 Red. masses --      1.2903                 1.2970                 1.3483
 Frc consts  --      1.3603                 1.3694                 1.4290
 IR Inten    --      8.5987                14.0810                12.9026

                     70                     71                     72
                      A                      A                      A
 Frequencies --   1343.9907              1390.2537              1392.6014
 Red. masses --      1.1943                 1.3100                 1.2985
 Frc consts  --      1.2711                 1.4919                 1.4837
 IR Inten    --     95.5387                10.9355                43.6984

                     73                     74                     75
                      A                      A                      A
 Frequencies --   1394.7023              1396.9901              1401.8486
 Red. masses --      1.2394                 1.2705                 1.3125
 Frc consts  --      1.4205                 1.4608                 1.5196
 IR Inten    --     10.9322                 2.7560                 8.9547

                     76                     77                     78
                      A                      A                      A
 Frequencies --   1405.9110              1426.1189              1428.8227
 Red. masses --      1.2570                 1.3054                 1.2903
 Frc consts  --      1.4638                 1.5643                 1.5521
 IR Inten    --      6.5114                19.1285                34.6973

                     79                     80                     81
                      A                      A                      A
 Frequencies --   1433.1770              1433.5310              1436.0671
 Red. masses --      1.0505                 1.3141                 1.0466
 Frc consts  --      1.2713                 1.5911                 1.2717
 IR Inten    --     16.2113                38.1868                17.1462

                     82                     83                     84
                      A                      A                      A
 Frequencies --   1456.9491              1466.2230              1471.1414
 Red. masses --      1.0952                 1.0390                 1.0517
 Frc consts  --      1.3697                 1.3160                 1.3411
 IR Inten    --     22.5098                12.9068                 1.3902

                     85                     86                     87
                      A                      A                      A
 Frequencies --   1473.3875              1475.4970              1479.7670
 Red. masses --      1.0468                 1.0519                 1.0643
 Frc consts  --      1.3390                 1.3493                 1.3732
 IR Inten    --      1.6542                 0.8448                 9.2285

                     88                     89                     90
                      A                      A                      A
 Frequencies --   1481.0699              1487.3896              1489.3366
 Red. masses --      1.0528                 1.0652                 1.0641
 Frc consts  --      1.3606                 1.3884                 1.3906
 IR Inten    --      1.9400                19.3944                 2.8199

                     91                     92                     93
                      A                      A                      A
 Frequencies --   1490.5486              1494.6158              1498.4452
 Red. masses --      1.0487                 1.0723                 1.0711
 Frc consts  --      1.3727                 1.4113                 1.4169
 IR Inten    --      4.2410                13.3291                11.5868

                     94                     95                     96
                      A                      A                      A
 Frequencies --   1527.9625              2981.3936              3052.1166
 Red. masses --      1.0744                 1.0719                 1.0369
 Frc consts  --      1.4779                 5.6137                 5.6912
 IR Inten    --     14.8559                97.7714                27.9195

                     97                     98                     99
                      A                      A                      A
 Frequencies --   3053.7740              3061.0913              3063.2697
 Red. masses --      1.0357                 1.0396                 1.0386
 Frc consts  --      5.6908                 5.7395                 5.7418
 IR Inten    --     25.0433                26.0359                28.5768

                    100                    101                    102
                      A                      A                      A
 Frequencies --   3066.4549              3078.4639              3085.7013
 Red. masses --      1.0358                 1.0326                 1.0649
 Frc consts  --      5.7386                 5.7659                 5.9740
 IR Inten    --     11.1042                 2.4397                 9.4072

                    103                    104                    105
                      A                      A                      A
 Frequencies --   3086.3387              3097.5936              3112.9130
 Red. masses --      1.0811                 1.0849                 1.0819
 Frc consts  --      6.0676                 6.1334                 6.1772
 IR Inten    --     22.2030                16.4433                11.0606

                    106                    107                    108
                      A                      A                      A
 Frequencies --   3116.6625              3119.9783              3123.4000
 Red. masses --      1.0698                 1.1014                 1.1019
 Frc consts  --      6.1228                 6.3166                 6.3337
 IR Inten    --     18.2602                12.3314                 0.7716

                    109                    110                    111
                      A                      A                      A
 Frequencies --   3128.8508              3131.0707              3132.4026
 Red. masses --      1.1006                 1.0996                 1.1023
 Frc consts  --      6.3482                 6.3517                 6.3726
 IR Inten    --     77.3300               100.8004                72.4959

                    112                    113                    114
                      A                      A                      A
 Frequencies --   3137.6944              3140.0067              3146.3811
 Red. masses --      1.1029                 1.1027                 1.1022
 Frc consts  --      6.3977                 6.4059                 6.4287
 IR Inten    --     11.4610                40.0966                25.9977

                    115                    116                    117
                      A                      A                      A
 Frequencies --   3154.4799              3157.3850              3159.1623
 Red. masses --      1.0995                 1.1002                 1.1069
 Frc consts  --      6.4459                 6.4623                 6.5088
 IR Inten    --     34.5645                27.8454                37.8639

                    118                    119                    120
                      A                      A                      A
 Frequencies --   3175.1587              3177.1926              3181.6095
 Red. masses --      1.1048                 1.1040                 1.1050
 Frc consts  --      6.5625                 6.5660                 6.5902
 IR Inten    --      0.7063                 0.2489                 0.7538

 - Thermochemistry -
 -------------------
 Temperature   298.150 Kelvin.  Pressure   1.00000 Atm.
 Atom     1 has atomic number 15 and mass  30.97376

 Molecular mass:   267.14219 amu.
 Principal axes and moments of inertia in atomic units:
                           1         2         3
     Eigenvalues --  3040.022816223.946966745.10020
           X            0.99998  -0.00689  -0.00153
           Y            0.00683   0.99929  -0.03706
           Z            0.00179   0.03704   0.99931
 This molecule is an asymmetric top.
 Rotational symmetry number  1.
 Warning -- assumption of classical behavior for rotation
           may cause significant error
 Rotational temperatures (Kelvin)      0.02849     0.01392     0.01284
 Rotational constants (GHZ):           0.59366     0.28997     0.26756
 Zero-point vibrational energy     974889.5 (Joules/Mol)
                                  233.00418 (Kcal/Mol)
 Warning -- explicit consideration of  34 degrees of freedom as
           vibrations may cause significant error
 Vibrational temperatures:     41.94    54.96    94.39   104.53   112.14
          (Kelvin)            153.32   160.25   175.13   212.97   251.77
                              277.38   292.36   308.97   320.72   328.57
                              337.19   357.72   382.59   389.84   417.11
                              430.06   442.17   472.29   494.71   534.36
                              559.04   579.07   607.54   660.74   683.40
                              722.27   749.17   806.79   836.72   964.11
                             1021.99  1065.72  1146.10  1175.66  1225.52
                             1256.11  1318.61  1322.12  1327.34  1331.03
                             1334.02  1362.43  1369.55  1371.54  1382.52
                             1439.03  1531.86  1537.20  1597.89  1610.07
                             1637.00  1652.56  1666.79  1701.77  1704.60
                             1722.70  1731.72  1781.22  1819.06  1866.09
                             1921.67  1924.62  1926.02  1929.76  1933.70
                             2000.26  2003.64  2006.67  2009.96  2016.95
                             2022.79  2051.87  2055.76  2062.02  2062.53
                             2066.18  2096.22  2109.57  2116.64  2119.88
                             2122.91  2129.05  2130.93  2140.02  2142.82
                             2144.57  2150.42  2155.93  2198.40  4289.56
                             4391.32  4393.70  4404.23  4407.36  4411.94
                             4429.22  4439.64  4440.55  4456.75  4478.79
                             4484.18  4488.95  4493.88  4501.72  4504.91
                             4506.83  4514.44  4517.77  4526.94  4538.59
                             4542.77  4545.33  4568.35  4571.27  4577.63

 Zero-point correction=                           0.371316 (Hartree/Particle)
 Thermal correction to Energy=                    0.392358
 Thermal correction to Enthalpy=                  0.393302
 Thermal correction to Gibbs Free Energy=         0.322303
 Sum of electronic and zero-point Energies=          -1379.141642
 Sum of electronic and thermal Energies=             -1379.120600
 Sum of electronic and thermal Enthalpies=           -1379.119656
 Sum of electronic and thermal Free Energies=        -1379.190655

                     E (Thermal)             CV                S
                      KCal/Mol        Cal/Mol-Kelvin    Cal/Mol-Kelvin
 Total                  246.208             78.285            149.431
 Electronic               0.000              0.000              0.000
 Translational            0.889              2.981             42.647
 Rotational               0.889              2.981             33.212
 Vibrational            244.431             72.323             73.572
 Vibration     1          0.593              1.984              5.886
 Vibration     2          0.594              1.982              5.350
 Vibration     3          0.597              1.971              4.281
 Vibration     4          0.599              1.967              4.080
 Vibration     5          0.599              1.964              3.942
 Vibration     6          0.605              1.944              3.331
 Vibration     7          0.607              1.940              3.245
 Vibration     8          0.609              1.931              3.073
 Vibration     9          0.617              1.905              2.698
 Vibration    10          0.627              1.873              2.381
 Vibration    11          0.635              1.850              2.201
 Vibration    12          0.639              1.835              2.104
 Vibration    13          0.645              1.819              2.003
 Vibration    14          0.649              1.806              1.935
 Vibration    15          0.651              1.798              1.892
 Vibration    16          0.654              1.788              1.845
 Vibration    17          0.662              1.765              1.740
 Vibration    18          0.672              1.736              1.623
 Vibration    19          0.675              1.727              1.590
 Vibration    20          0.686              1.693              1.475
 Vibration    21          0.692              1.676              1.423
 Vibration    22          0.697              1.660              1.377
 Vibration    23          0.711              1.619              1.269
 Vibration    24          0.723              1.588              1.194
 Vibration    25          0.743              1.531              1.074
 Vibration    26          0.757              1.495              1.006
 Vibration    27          0.768              1.465              0.954
 Vibration    28          0.785              1.422              0.884
 Vibration    29          0.817              1.340              0.768
 Vibration    30          0.832              1.306              0.724
 Vibration    31          0.857              1.246              0.653
 Vibration    32          0.876              1.204              0.608
 Vibration    33          0.916              1.116              0.522
 Vibration    34          0.938              1.071              0.482

 Optimization completed.
    -- Stationary point found.
 Normal termination of Gaussian 16 at Wed Mar 18 16:11:37 2020.
